<?xml version="1.0"?>
<VTKFile type="UnstructuredGrid"  version="0.1"  >
    <UnstructuredGrid>
        <Piece  NumberOfPoints="27448" NumberOfCells="53665">
            <Points>
                <DataArray  type="Float64"  NumberOfComponents="3"  format="ascii">188709.447106 -2601788.035 0  187254.039035 -2603761.96385 0  185057.524224 -2604800.83799 0  182630.649228 -2604681.61326 0  180546.538708 -2603432.44549 0  179297.370936 -2601348.33497 0  179148.625004 -2599120.47579 0  177163.793174 -2598055.91615 0  175063.72284 -2598053.87666 0  173045.902954 -2598832.40959 0  172461.398899 -2601069.50724 0  170829.643742 -2602869.87162 0  168541.878279 -2603688.44719 0  166273.186422 -2603834.0496 0  164005.645641 -2603977.70451 0  161602.142777 -2603621.17854 0  159650.507672 -2602173.7473 0  158611.633537 -2599977.23249 0  158730.858261 -2597550.35749 0  157290.555214 -2595899.70411 0  156041.387441 -2593815.59359 0  154001.586729 -2595058.69666 0  151644.603045 -2595649.09034 0  149382.873418 -2595780.4909 0  147025.889734 -2595190.09722 0  145225.525356 -2593558.34207 0  144406.949784 -2591270.5766 0  143173.52501 -2593178.71675 0  142816.999039 -2595582.21962 0  141369.567797 -2597533.85472 0  139173.052986 -2598572.72886 0  140566.123009 -2600055.75981 0  141384.698581 -2602343.52528 0  141503.155919 -2604604.69514 0  141146.629948 -2607008.19801 0  141740.285414 -2609128.52398 0  141383.759443 -2611532.02684 0  143267.634607 -2613112.57085 0  144981.052147 -2614559.61102 0  146428.483389 -2616511.24613 0  146785.00936 -2618914.74899 0  145966.433788 -2621202.51445 0  144228.214765 -2622797.02112 0  142815.710366 -2624674.80962 0  141340.780049 -2626365.11948 0  139389.144944 -2627812.55073 0  140063.280988 -2630008.95392 0  140653.674666 -2632365.9376 0  140770.260943 -2634630.08915 0  140179.867265 -2636987.07283 0  138548.112109 -2638787.43721 0  137120.488596 -2640546.87139 0  135036.378077 -2641796.03917 0  132609.50308 -2641915.26389 0  130412.98827 -2640876.38975 0  128965.557028 -2638924.75465 0  128609.031057 -2636521.25178 0  126523.443043 -2637342.27576 0  124166.459359 -2637932.66944 0  121867.963929 -2638040.05872 0  119510.980245 -2637449.66504 0  117710.615868 -2635817.90988 0  115848.944242 -2637314.43475 0  113652.429431 -2638353.30889 0  111353.441345 -2638450.67002 0  108926.566349 -2638331.4453 0  106842.455829 -2637082.27752 0  105593.288056 -2634998.167 0  105474.063333 -2632571.29201 0  106512.937468 -2630374.7772 0  108046.595243 -2629090.21338 0  106133.304598 -2627660.91772 0  105094.430463 -2625464.40291 0  103987.328544 -2623592.0921 0  102738.160772 -2621507.98158 0  101881.706756 -2619486.80889 0  100325.635892 -2617857.95452 0  98525.2715143 -2616226.19936 0  96779.9867415 -2614809.2796 0  95173.09894320001 -2613253.76913 0  93541.3437866 -2611453.40475 0  92950.95010830001 -2609096.42107 0  91702.3453571 -2607258.51917 0  89618.2348374 -2606009.3514 0  88369.06706469999 -2603925.24088 0  88248.76045269999 -2601505.65938 0  88167.82219960001 -2599242.70275 0  88087.8421103 -2596972.50112 0  86313.929531 -2595938.14788 0  84362.29442599999 -2594490.71664 0  83323.4202908 -2592294.20183 0  83246.4249497 -2590031.44873 0  83169.37158409999 -2587769.64888 0  83288.5963074 -2585342.77388 0  84537.7640802 -2583258.66336 0  86621.87459979999 -2582009.49559 0  88640.92944550001 -2581203.10587 0  87478.3200845 -2579041.34732 0  86684.34877880001 -2577011.96577 0  84408.762412 -2576980.55941 0  82324.6518923 -2578229.72718 0  79897.77689589999 -2578348.95191 0  77701.2620852 -2577310.07777 0  75426.1205009 -2577247.04443 0  74670.0051005 -2579272.36536 0  73631.13096530001 -2581468.88017 0  71679.4958603 -2582916.31141 0  69275.99299680001 -2583272.83738 0  66988.2275334 -2582454.26181 0  67394.66984639999 -2584742.61561 0  68213.24541829999 -2587030.38107 0  68268.5351316 -2589292.70435 0  68288.3927697 -2591316.53464 0  70102.2320716 -2589662.29793 0  72459.2157558 -2589071.90426 0  74816.1994399 -2589662.29793 0  76616.5638173 -2591294.05309 0  77435.1393891 -2593581.81855 0  77498.4101061 -2595845.3146 0  77141.8841353 -2598248.81746 0  75694.4528936 -2600200.45257 0  73497.9380828 -2601239.3267 0  72637.3965003 -2603155.46667 0  73227.7901786 -2605512.45036 0  72637.3965003 -2607869.43404 0  71005.6413437 -2609669.79842 0  68717.87588019999 -2610488.37399 0  66444.6544858 -2610546.79485 0  64170.0243154 -2610603.49214 0  61766.5214519 -2610246.96617 0  59814.8863469 -2608799.53492 0  58776.0122117 -2606603.02011 0  57764.382817 -2604689.84389 0  56515.2150443 -2602605.73337 0  56395.9903209 -2600178.85838 0  55703.0196365 -2598280.80893 0  54020.1053877 -2599647.26015 0  52219.7410103 -2601279.01531 0  50809.0849728 -2603040.3691 0  48612.5701621 -2604079.24323 0  46185.6951657 -2603960.01851 0  44101.5846461 -2602710.85074 0  42552.1230962 -2601109.83421 0  40920.3679395 -2599309.46984 0  40329.9742613 -2596952.48615 0  38831.8131417 -2595241.7105 0  38013.2375698 -2592953.94504 0  37975.7444422 -2590690.19281 0  36677.0755994 -2592626.7554 0  36086.6819212 -2594983.73909 0  34589.951356 -2596683.9624 0  36835.407943 -2597496.26205 0  38467.1630996 -2599296.62642 0  40223.9403554 -2600714.67217 0  41262.8144906 -2602911.18698 0  41239.3000907 -2604955.96495 0  41294.4401322 -2607126.99955 0  42959.549358 -2608258.13366 0  44911.1844629 -2609705.5649 0  45950.0585981 -2611902.07971 0  45928.5136893 -2613938.99503 0  45985.5420403 -2616117.56819 0  46649.3181627 -2618036.40545 0  48096.7494045 -2619988.04056 0  48453.2753753 -2622391.54342 0  47634.6998034 -2624679.30888 0  45834.3354261 -2626311.06404 0  44395.9307369 -2628068.69227 0  42833.1118938 -2629675.98971 0  41714.36887 -2631559.17784 0  41746.0213857 -2633826.01181 0  41777.7079135 -2636091.98662 0  40959.1323417 -2638379.75208 0  39561.6728997 -2640166.51462 0  38971.2792215 -2642523.4983 0  37339.5240648 -2644323.86268 0  35051.7586014 -2645142.43825 0  33151.1242754 -2646355.42526 0  30954.6094646 -2647394.29939 0  28876.6047305 -2647362.46212 0  29863.4397787 -2649250.7526 0  30453.833457 -2651607.73628 0  30475.6077194 -2653876.03126 0  29885.2140412 -2656233.01495 0  28366.6018538 -2657949.46678 0  30665.1980208 -2658768.57443 0  32296.9531774 -2660568.93881 0  32887.3468557 -2662925.92249 0  32911.1479818 -2665194.21831 0  32934.8565983 -2667462.56507 0  32344.4629201 -2669819.54876 0  30712.7077634 -2671619.91314 0  30269.2632795 -2673937.59571 0  28821.8320377 -2675889.23081 0  26625.317227 -2676928.10495 0  24198.4422306 -2676808.88022 0  22184.2632751 -2675623.09472 0  20494.6112538 -2677145.10803 0  18694.2468764 -2678776.86319 0  16337.2631923 -2679367.25687 0  16328.3197224 -2681556.81958 0  16695.2498666 -2683748.54063 0  18231.2471651 -2685221.84026 0  19049.822737 -2687509.60572 0  18693.2967662 -2689913.10859 0  17245.8655245 -2691864.74369 0  15049.3507137 -2692903.61783 0  12923.7617688 -2692859.86133 0  10671.6442995 -2693718.92655 0  8475.12948876 -2694757.80068 0  6048.25449241 -2694638.57596 0  3964.14397275 -2693389.40818 0  2714.97620002 -2691305.29766 0  2595.75147666 -2688878.42267 0  3634.62561186 -2686681.90786 0  5226.26036744 -2685242.30568 0  4740.34299215 -2683123.24312 0  4383.81702134 -2680719.74025 0  4375.98782749 -2678450.18575 0  5194.56339934 -2676162.42028 0  6685.25467639 -2674716.27604 0  6683.48143659 -2672611.93633 0  7040.00740739 -2670208.43347 0  7417.36292394 -2667443.88909 0  7824.93582169 -2665468.75231 0  8410.794327670001 -2663527.71617 0  8789.920594839999 -2661534.38713 0  9402.53505604 -2659626.6271 0  10267.9877969 -2655772.74152 0  9178.783792579999 -2652059.87158 0  9075.828862509999 -2648193.91481 0  8209.248657919999 -2644383.17012 0  7413.84548843 -2640473.79105 0  5653.37714872 -2637372.30598 0  1842.10844724 -2636450.48477 0  -2071.14590914 -2635775.73022 0  -5980.2460373 -2634919.29386 0  -7917.9514617 -2634333.4669 0  -10724.915428 -2631667.02839 0  -14291.2025564 -2630012.37117 0  -18039.4626329 -2628641.89039 0  -19871.8410821 -2627778.94406 0  -21640.1002527 -2626740.65407 0  -24798.4759086 -2624385.78355 0  -26275.223963 -2623029.49511 0  -28026.9044061 -2621977.87693 0  -31459.5981544 -2620064.28459 0  -34031.1892567 -2617179.953 0  -36395.7990861 -2614059.6537 0  -39206.4393119 -2611286.53213 0  -42153.0531554 -2608650.69716 0  -45859.4749503 -2605956.03113 0  -47509.660713 -2604741.54678 0  -49017.227489 -2603345.83361 0  -50422.635594 -2601855.68289 0  -52874.7318681 -2599054.568 0  -52729.9003923 -2595341.23855 0  -51869.725798 -2591483.6985 0  -53823.3307635 -2588314.99602 0  -55502.4847041 -2587218.89806 0  -59235.6664261 -2585896.07188 0  -61282.6963677 -2585609.30381 0  -65198.5977446 -2585330.82352 0  -67101.2829121 -2584589.02812 0  -70479.74089869999 -2582698.92422 0  -72064.7986001 -2581446.37975 0  -73805.65191 -2580358.31168 0  -77083.894723 -2578129.82135 0  -78709.32770920001 -2576963.88395 0  -82367.8092296 -2575462.75439 0  -84142.7634025 -2574473.9585 0  -85788.3124174 -2573303.29551 0  -87576.3992996 -2572297.5136 0  -89405.7297296 -2571377.88472 0  -91148.9474163 -2570377.8168 0  -92751.2416772 -2569105.92694 0  -95830.4673609 -2566532.44688 0  -97344.6531521 -2565164.97261 0  -100559.053485 -2562818.27869 0  -102300.293249 -2561803.21894 0  -105901.335002 -2560108.72887 0  -107774.010963 -2559290.28655 0  -109646.097839 -2558228.04364 0  -111302.815717 -2557025.51855 0  -112916.47651 -2555843.60058 0  -114509.569182 -2554618.77882 0  -118055.917808 -2552732.96495 0  -122005.724719 -2552351.20282 0  -123837.047292 -2551446.71103 0  -125600.817877 -2550489.63676 0  -129229.6735 -2548654.40611 0  -130959.520493 -2547549.32172 0  -132700.538348 -2546412.21555 0  -136081.946373 -2544303.35046 0  -137821.295165 -2543273.28155 0  -139310.975039 -2541832.78787 0  -140755.845145 -2540397.94317 0  -143508.983059 -2537530.47001 0  -146091.671697 -2534517.13834 0  -148385.764004 -2531265.94704 0  -150030.139759 -2527685.82309 0  -152564.1048
[...]
            <PointData  Scalars="f_20"> 
                <DataArray  type="Float64"  Name="f_20"  format="ascii">5.7168004378247201e+02  1.2667338288555584e+01  7.4480104819471620e+01  3.2170465789204718e+02  7.2861967414718447e+02  5.8076769704940284e+02  1.0420199035534530e+02  3.0066394915588478e+02  7.2876212644752956e+00  1.2615938748782440e+00  1.4166194156974440e+01  5.9748085932799427e+01  1.4307410296631946e+02  2.5093703864157865e+02  7.8869731292054166e+02  3.0214302933704761e+02  4.0207856736787349e+01  3.5063874649729920e-01  3.5450457078208547e+02  5.4076641944930111e+02  7.3060111464875411e+02  7.0130985352499567e+02  7.4768495863878138e+02  9.6071284066822886e+02  6.9887467849789414e+02  2.8215930709984451e+02  1.3418732725649841e+02  1.9865777469314992e+01  -1.1401878824310321e+01  5.8604392844298411e+02  7.5799976457743651e+02  9.7014822377999644e+02  9.4561122517270837e+02  6.4301475020283374e+02  4.6423779470493059e+02  2.5632258330723226e+02  4.1157796202821953e+02  1.5547907339174384e+02  5.5600946413504153e+02  3.5853361098852236e+02  4.8099338373431799e+01  3.7008817026551930e+02  1.0959735898842015e+02  3.6776736932911156e+01  1.5219010979700195e+02  4.3184317798536722e+02  1.5396974940500980e+01  1.1937771584026257e+02  1.4682983584975196e+01  2.3032295714790786e+02  3.4861515137817554e+02  3.0185881367518181e+02  4.7110647761231553e+02  5.4298365052186216e+02  5.0799834370167719e+02  4.4087448896950031e+02  6.6396523660502112e+02  4.7464139083686672e+02  7.7649755447200937e+02  2.6961518386341027e+02  1.9342895255944963e+01  -8.6705350239366066e+00  -6.9769098178642270e+00  1.5999968177407357e+02  3.7506489647232240e+02  1.9191098981687361e+02  9.3920573387457273e+02  4.6015629262014744e+02  4.4238165791134151e+01  4.7831257716426006e+02  1.1925896319295223e+03  1.0027898353626159e+03  1.1906200974255096e+03  7.7056457185062266e+02  8.9761713543278859e+02  9.8091245373614208e+02  1.1144717417170580e+03  7.4694176050631688e+02  1.0378516733517308e+03  9.5784746333573094e+02  1.0663985922128036e+03  4.5176261615977569e+02  5.3050760993067193e+01  4.2744545151519276e+01  4.2918781517612175e+01  7.1753162089537932e+02  1.2422562620081842e+03  1.0763567300468565e+03  1.3515220522475208e+03  1.3243628774752162e+03  1.1805324081875390e+03  1.2500226465899502e+03  1.2836460006077807e+03  1.2340369436296489e+03  1.5084969556015128e+03  1.5223443154167630e+03  1.6334871522994586e+03  1.6241250992966736e+03  1.7224285063451202e+03  1.8666430706681244e+03  1.5951880474803663e+03  1.4485674576620393e+03  1.6289577823335899e+03  1.4319169488473710e+03  1.3732687273366284e+03  1.5862447688629059e+03  1.4779274102091922e+03  1.1412814739659507e+03  1.1122965524359952e+03  7.9824453334376676e+02  1.0685845513348277e+03  1.8571628005315949e+03  1.5637990684590595e+03  1.3131098747976303e+03  1.6303452080522711e+03  7.2054443278375868e+02  7.3411946802724981e+02  1.1081037622603271e+03  1.4499182473834151e+03  1.2622272613521147e+03  1.3625512098624154e+03  1.1569097901343528e+03  1.0805241011761484e+03  1.2338975211602060e+03  4.3211507685434339e+02  -5.8344376584231910e+00  -2.4188737550180726e+01  -4.8039893015399758e+02  -7.2455725468995979e+02  -7.2707901913658009e+02  -6.4655395636401329e+02  4.7703953546042278e+01  6.5055592936738026e+02  9.2342347626584785e+02  9.1746589271036703e+02  8.4965176871887979e+02  6.7894815510187334e+02  1.1426851249351841e+02  1.6550581759429627e+02  -1.1003825854319912e+03  -1.0106535794749103e+03  1.7839602991550808e+02  4.8851015197546059e+02  3.5699517454624248e+02  4.9551387213372612e+02  3.5614798196447424e+02  4.3200096897208869e+02  4.7799542373833407e+02  4.7889983035725896e+02  3.9076435107112707e+02  3.3158448469402788e+02  2.0141692197388403e+02  1.0530767897057805e+02  2.2198995436024688e+02  -7.0030976393277410e+02  -9.8835229877619724e+02  -1.3815079748703096e+02  -9.4836424349312017e+02  2.1005250097003267e+02  5.5650973154933172e+02  5.5602653407834055e+02  1.3534510567256604e+02  -2.1515661935967408e+01  -8.0757639775336202e+02  -6.1792573299228150e+02  2.8743806902898950e+02  3.8279679344396573e+02  1.5658481162865107e+02  2.8130736914641489e+02  2.3522986380824483e+02  3.9495147448990558e+01  -1.8453336014662241e+02  3.5159743683196223e+02  4.4822511918252980e+02  5.8718226809482815e+02  3.2690990234070318e+02  5.3663945937410563e+02  2.8080350297097510e+02  2.4069101579559009e+02  2.0734492952857812e+02  4.1285453386577458e+01  -3.8612748995636839e+00  -5.6285595085343509e-01  3.4490899120439394e+01  2.2973638160761749e+02  5.1460551084710822e+01  2.0913082545564626e+02  2.8970905502928463e+02  2.8484698859547063e+02  1.6934490942192110e+02  4.8296332930297837e+02  4.2889673428424470e+02  4.4406158364515494e+02  3.4976268042861943e+02  7.8216865439059461e+01  3.1520397514016000e+01  1.2155110625677246e+02  1.6100730746646670e+02  3.8117258370139791e+02  4.9871608159337518e+02  2.1234903505835874e+02  2.8325944087032987e+01  2.7851282435101965e+01  4.3130498525947452e+01  1.1358005737460523e+02  7.6183090993603074e+01  2.0041961178426202e+01  5.7978387362399879e+01  8.8780867747110506e+01  4.0821098358927415e+01  1.5710047158431495e+01  -1.4057897414975091e+00  1.6761212686314547e+01  1.0072903207688897e+02  1.5641530519789396e+02  2.0647999581957853e+02  2.6410055241350182e+02  3.3223693480744907e+02  4.1990488418373457e+02  5.0763362825259532e+02  5.6199862847301415e+02  6.2841320390210376e+02  6.5285707837937207e+02  7.5538979475771214e+02  7.7948461968134757e+02  8.3978276419693577e+02  8.6921724315288975e+02  7.8542866844813364e+02  7.9840358053404930e+02  8.9842935181636744e+02  9.2192009901060760e+02  9.0087590154883412e+02  7.8564081978800095e+02  8.5662595247882541e+02  8.1991930663102482e+02  7.7169020108067650e+02  7.9477838215879478e+02  7.9758063907128121e+02  7.1590430729629907e+02  5.7138947201946121e+02  5.3864900242884414e+02  7.1393175185636369e+02  7.3000440686462468e+02  9.5510688884657975e+02  1.0894360670258040e+03  9.2660867244426288e+02  7.9256402683056160e+02  7.5531257979783356e+02  8.6763594222682343e+02  8.0958446071738558e+02  5.3804095080335549e+02  3.2870725186040215e+02  2.7929026908923055e+02  2.5007489218264806e+02  1.8945378325626561e+02  1.3897410094066529e+02  1.6393748823831655e+02  3.8229229856510682e+02  2.3257731192639170e+02  1.9877309175039207e+02  1.6721944158329615e+02  1.9469587469910533e+02  2.3942954457363763e+02  2.2676796255343470e+02  1.5550453059113661e+02  1.8228010834351903e+02  1.5306526155698037e+02  2.1703263931397737e+02  2.4720515954203961e+02  1.7777854682977323e+02  1.8810196789957058e+02  2.0378921114785268e+02  2.1198447217248514e+02  2.0310601392295229e+02  1.3016648936334175e+02  2.1017893214561283e+02  3.1468973057170552e+02  3.1769476104188340e+02  2.9279205998298761e+02  2.6873620226949163e+02  2.4217632530358776e+02  2.5854772070809310e+02  2.4263093330324628e+02  2.2154864112998476e+02  2.4584675377563883e+02  2.0733721032555098e+02  1.8752295188882837e+02  2.2716122316401822e+02  1.9391717071664704e+02  1.5713652914058554e+02  1.1179427474521847e+02  1.3174734489082388e+02  1.7851721219222938e+02  2.0856798294590149e+02  1.8556997429256884e+02  2.6024117183353172e+02  2.0766147471635765e+02  1.3245800371573102e+02  1.5134699207140102e+02  1.4779677570972626e+02  1.2993732015449081e+02  1.8310630592220832e+02  2.3438537495144209e+02  1.6634953579725217e+02  2.4379132939528614e+02  2.5951760613680818e+02  2.1435970074731466e+02  1.4636598801007722e+02  2.2142460036496462e+02  1.9970287027085436e+02  1.5566402195594867e+02  8.3111526385046361e+01  3.7948266622988214e+01  2.3418517722366861e+01  1.9598363989284312e+01  3.9886462192980694e+01  7.7281405527914842e+01  9.9746980006428259e+01  1.0989938083504447e+02  1.1416281217988438e+02  1.3557407801429378e+02  1.5523418831780873e+02  1.3834845176379190e+02  1.1293120693050774e+02  9.3512301224606603e+01  2.4149232153154415e+01  -1.4867345483561188e+01  2.9294650288732257e+01  6.9615698233191054e+01  6.2014136436230359e+01  4.8917834093733553e+01  3.8709523844700925e+01  2.8992329397312709e+01  2.4530146485081509e+01  4.7363015771161834e+01  1.0231073071148884e+02  1.2409266687389554e+02  1.3030710505097437e+02  1.0605666931753019e+02  7.6984746728840548e+01  1.6443400651496656e+01  -1.8923811334870884e+01  -9.6587975888194890e+01  -9.7792665328859613e+01  -5.7095010679607476e+01  -3.2462402985268305e+01  -3.1899974510810338e+01  -3.8731253921993456e+01  -3.5718909518542318e+01  -1.2614256710563284e+01  -6.3874208361435167e+00  2.8554739444981392e+00  1.9712028573300021e+01  5.8241818039498323e+00  -4.2646142115238796e+01  -6.2923656906977719e+01  -8.8917028496932119e+01  -1.1675540165803199e+02  -1.2492379623475483e+02  -7.6321062078352483e+01  -7.4974920515068902e+01  -6.1662238565576835e+01  -3.3233114470772030e+01  4.4362237242579916e+01  1.5343201459772865e+02  2.6391692249241521e+02  9.0398205873925406e+01  7.1883372048866050e+01  8.6529161173231699e+01  4.8448018350193060e+01  1.0732643609604187e+01  3.2822356464438499e+01  7.7428401988016333e+01  1.1448346020806078e+02  1.5094519627344934e+02  1.8872807760921106e+02  1.7678542892986206e+02  1.5070439735845076e+02  1.1205728506899398e+02  7.4804172959844010e+01  4.6526637437970273e+01  2.8934760938774467e+01  3.1260789770258729e+01  1.3708916810639911e+01  -1.8396576170573876e+01  -2.9070073291023586e+01  -1.9837838447375038e+01  1.4628155091966008e+01  3.8829757827876769e+01  1.0642019859752129e+02  1.6172259034277431e+02  2.0571580013100316e+02  2.1721834100187186e+02  2.2564279274099277e+02  2.4647050478591527e+02  2.5111580503656450e+02  2.3522071385321865e+02  2.0389500576375869e+02  1.9027796097628459e+02  1.7698344934299530e+02  1.7228753827262221e+02  1.6825393515872332e+02  1.4592100340168142e+02  1.4109138323713219e+02  1.8021682837697847e+02  2.4433654388449622e+02  2.6345854390384869e+02  2.9842825586274648e+02  2.7502734333451082e+02  2.9701326487730529e+02  2.7727984271332900e+02  2.1140201336491634e+02  2.0186160494506984e+02  1.4478894781036428e+02  1.7490361491320328e+02  2.2964151930009137e+02  2.3120257087140999e+02  2.5530576624543775e+02  2.8122021493729432e+02  2.8464968790236378e+02  2.8761779383625628e+02  2.9510191170446296e+02  3.1632478368828595e+02  3.2223591912707110e+02  3.1800997644395392e+02  3.1502382105858402e+02  3.1432327320639314e+02  3.1474439909212600e+02  3.1288149191285885e+02  3.0521010235613250e+02  3.0167522962632506e+02  2.8936127019246135e+02  3.1012011517679400e+02  3.3286274403444003e+02  3.3475371213408033e+02  3.3754462362899454e+02  3.3974011680401952e+02  3.5492896043461053e+02  3.9488002904794695e+02  5.3024690452231539e+02  6.6555718554049133e+02  7.5439264057022706e+02  7.3900213443525138e+02  6.8134802172443619e+02  7.0427707032107389e+02  7.1847990016719370e+02  7.2552767549912528e+02  7.2514249935994769e+02  7.2493480731393095e+02  8.0941731259912717e+02  1.0275857987283641e+03  1.1013978687461936e+03  1.1722356338518691e+03  1.2251163448262305e+03  1.2484258105226022e+03  1.2702576573229012e+03  1.3175650625889077e+03  1.2725870052894143e+03  1.0283542009189175e+03  9.3519380189186893e+02  8.6119215477542809e+02  8.2023557341521007e+02  9.0487591150905519e+02  1.1896891032934629e+03  1.1394319981993581e+03  1.0314828425779028e+03  1.2164497014513045e+03  1.4076543111952137e+03  1.5225060400309799e+03  1.4890756480782484e+03  1.5846151227930316e+03  1.6748216298170146e+03  1.8725233223726045e+03  1.9968019210077973e+03  1.7030242054033986e+03  1.6669857880909935e+03  1.8318712038599433e+03  1.9232554865852394e+03  1.6159131462329140e+03  2.0651804247750770e+03  1.8856822350367422e+03  1.5745089457214576e+03  1.3366275919074974e+03  1.1019586759463016e+03  1.3349195277526590e+03  1.4993124334395270e+03  1.5032504516938423e+03  7.4183151329446218e+02  1.0468998559063034e+03  1.8490533755221966e+03  1.8854056820695887e+03  2.3998160008334044e+03  1.5853730215276428e+03  1.3727360072305210e+03  1.6400022122988353e+03  2.2826274815266893e+03  2.0870793678549253e+03  2.2207483278794034e+03  2.5123198187658936e+03  2.3216450549853948e+03  1.9839714993586267e+03  1.9427814658605671e+03  1.9769829957503130e+03  1.8241728890208649e+03  1.8218230484014359e+03  2.2428755928164933e+03  2.0496236953968219e+03  2.0987368968015353e+03  2.3132183259848975e+03  2.5783014689435790e+03  2.0988220312497083e+03  2.4081489183943095e+03  2.5441722666905262e+03  2.4191672123215994e+03  2.4088036631603068e+03  2.1271443016011299e+03  1.7842737522849166e+03  1.6820525314620932e+03  1.2623257960598667e+03  6.3869146107383165e+02  9.9067246818195576e+02  1.1727659084941540e+03  1.5361220053180791e+03  1.4209987541355704e+03  1.3364812203951931e+03  1.3813331280161083e+03  1.4178052643749249e+03  1.3271515082279889e+03  1.2044479131572330e+03  1.0578963541414103e+03  9.6181411821211123e+02  1.0629293172765290e+03  8.1015747066424910e+02  3.6904065147906749e+02  5.0980864145716133e+01  2.1217870021325794e+02  5.2654418591624665e+02  4.9168611438370016e+02  6.0827661149242495e+01  2.0053403066605068e+02  7.1555921690138348e+01  6.2918456605754875e+02  9.4851009481310155e+02  5.7665206674664705e+02  1.0650402314771455e+02  -3.6212455286508987e+00  -1.0380023080442665e+01  5.3113333531244024e+01  -2.2745751946794437e+00  5.6480375199600289e+01  4.6176925779914302e+02  -3.5878770309570319e+02  -2.3130034121751982e+02  2.0012586288460554e+01  -1.0994255000545637e+01  -1.6774875996784488e+00  -1.8062321976043815e+01  -1.5434195188097304e+01  -1.1524825098188574e+01  1.2814391563485106e+02  8.1970893516566989e+01  1.2967918562040660e+02  3.3188227207438061e+01  4.1856448808414353e+02  1.3227337251838767e+02  -1.2836051450493377e+01  1.1662505222228367e+01  1.5609257277878078e+02  3.8356359015556302e+02  1.5450308325074954e+02  4.3283439976418595e+02  7.2249830558529959e+02  6.4351940192188249e+02  4.7837316177578157e+02  3.1404190795584361e+02  1.9534823340463373e+02  2.4749733336650715e+02  2.7372989044659539e+02  1.1954216673287796e+02  -9.7051004478799801e+00  4.1222491194613999e+00  -5.8393806085494653e+00  5.9783890991008608e+00  -4.8165919279546143e+00  -3.4489211151372219e+00  1.3118461238933514e+02  1.3897890298375481e+02  1.2224155813524139e+02  7.6783609456642338e+01  4.3176869817898063e+02  6.0065288418920557e+02  7.2066514492676583e+02  5.8084738406968711e+02  8.4649398662115928e+01  9.5114974285652565e+01  1.9791352860363983e+01  4.5920963244629949e+00  1.1837993285063260e+02  2.4554832356881306e+02  2.3160612382660307e+02  2.6385432841018275e+02  5.1976187873821470e+02  4.4524506328341300e+02  8.8011361647063393e+02  7.7525915338876746e+02  7.6263603724518134e+02  7.1015870101957057e+02  8.9271802902291631e+02  9.7114137393150656e+02  8.7839614717080462e+02  7.4314058533694049e+02  7.5000408136831777e+02  6.3689940545267461e+02  5.2735754058407647e+00  -2.2883370910442493e+00  1.0059493942692081e+01  -3.5199508983080796e+00  3.1201146661212636e+01  1.1272278401136775e+00  5.6387658844106056e+01  3.2940862759217669e+02  6.1231236618066009e+02  7.0617598164279468e+02  7.8115134350276173e+02  8.2218204879031930e+02  1.0823957404175717e+03  1.1026739699468035e+03  7.5477420380937087e+02  6.9805133075963829e+02  5.7643318144513216e+02  5.1890984308454028e+02  4.0553415344708060e+02  3.1450160571518569e+02  2.1229216535223492e+02  1.8466839280392452e+02  4.5133236185812592e+02  3.2350563045428288e+02  9.9958063654066123e+01  3.1334661705307951e+02  6.6752922439360100e+02  7.0046071855886828e+02  8.8160959258071728e+01  -1.8244383575106415e+01  3.4674194396253750e+02  5.1356343506330768e+02  3.1011378264930386e+02  2.3944661541512346e+02  5.7144828423985686e+01  9.4049759835576950e+01  -2.0552702894962319e+01  3.5738354244902133e+01  1.3764395953756215e+02  2.4959760503354892e+02  1.1144534844923889e+02  7.9170307545997520e+00  6.9398025373950986e+01  1.2126493725375822e+02  4.4642358115160015e+01  1.4947462802906522e+00  5.4999956834149209e+01  1.3793716587929353e+02  1.3471212189298609e+02  2.6691336931786299e+02  3.1780924635666918e+02  3.0445828117802716e+02  3.7995284805476331e+02  4.6019679479038803e+02  4.4648021925974206e+02  4.8853842911621865e+02  5.3946376367140101e+02  5.2723316668078235e+02  3.5068745585416838e+02  3.3624701623847136e+02  5.5055422786061081e+02  6.5944282921817216e+02  4.0123103544744708e+02  3.4188773863702960e+02  8.1485900739941383e+02  9.9296973244901142e+02  5.7025223233700046e+02  4.2446950705054667e+02  1.1254111939300873e+02  5.4656510627177433e+01  8.0591428409736778e+00  6.7729804959211162e+00  4.3621617439263476e+00  2.1344049853785294e+00  2.1384784670552211e+01  9.3464088302005848e+01  2.1315902377544728e+02  3.4769491871087126e+02  3.1602674920124605e+02  2.2086702510542602e+02  4.3266380117660873e+02  7.9386844146113958e+02  5.0925679986881954e+02  3.4187124606664236e+02  2.3926749370169392e+02  6.5758949417985164e+01  5.9608853316469514e+01  1.5818968976171377e+02  8.6842557631104182e+02  1.2011658286513245e+03  1.0947948688275969e+03  9.4054705428386217e+02  1.1253877390404243e+03  1.0056511180439827e+03  8.5040426435613290e+02  8.2976646781244619e+02  1.0402130595850692e+03  7.6549436225410216e+02  8.7656451078303519e+02  1.0192499444933460e+03  1.0819960314606383e+03  1.1060126159948586e+03  8.3303310824279049e+02  8.4396785502888122e+02  1.0079559659322938e+03  9.5804293767841943e+02  9.4317105510045565e+02  8.6363674346980577e+02  9.0236748802098521e+02  9.3064696010965520e+02  5.8342151429699402e+02  3.4561633830567871e+02  2.5845847429906269e+02  -9.5459595881981425e+00  -2.5645944578912264e+01  8.0644269931351772e+01  4.4471348106215920e+01  2.3522280880334264e+02  4.8309064203167998e+02  9.1930509214941878e+02  1.1114755088960317e+03  1.0697720318427364e+03  9.2465618110166213e+02  1.2352902745856552e+03  1.3613955275219223e+03  1.2159027754765882e+03  1.2382422560928771e+03  1.3072745643678986e+03  1.1278045270931184e+03  1.2134462174730475e+03  1.1984073265129584e+03  1.3209361752556847e+03  1.3271932986665322e+03  1.2546371406515955e+03  1.2346402814215460e+03  1.3928081143339725e+03  1.6174831484425010e+03  1.4473611464974917e+03  1.4580994814951034e+03  1.5981559349729382e+03  1.6558829162270315e+03  1.5701619091772479e+03  1.5529372939408581e+03  1.7347024054675180e+03  1.7781004616929777e+03  1.8119867966176371e+03  1.9382426576567498e+03  1.7390939872694616e+03  1.6710997810166523e+03  1.5026741783132165e+03  1.4806467278750683e+03  1.4430911299746065e+03  1.6883592536806123e+03  1.4650524494797412e+03  1.4461231508227788e+03  1.3639566402244729e+03  1.3205849024355273e+03  1.5288569094564905e+03  1.7275236087565906e+03  1.5285975100243086e+03  1.5343019675305454e+03  1.4170731081304129e+03  1.3441379575824740e+03  1.3352896113214374e+03  1.4443649220877192e+03  1.1422806846584117e+03  8.4484453347977228e+02  9.2632994299515678e+02  9.0217853635078279e+02  1.5259051787352425e+03  1.8473650132457710e+03  1.7477150156211285e+03  1.7084098877252097e+03  1.4049639625046984e+03  1.3706086553998960e+03  1.4444793862619470e+03  1.6646000747465869e+03  1.3545428361773202e+03  9.0615543341965326e+02  6.3690604339161655e+02  6.6981980673829275e+02  8.6911543218893257e+02  1.0217798361855730e+03  1.2273628020996223e+03  1.4056369629423928e+03  1.3792436717584469e+03  1.3150968068736281e+03  1.3165090258771806e+03  1.4365711947771367e+03  1.0509566379450023e+03  1.0260320720634681e+03  1.1593030177920659e+03  1.1424334981298093e+03  1.0771061101013283e+03  1.0821010143369779e+03  1.2953984763403430e+03  1.0058673715079223e+03  5.0999709973094603e+01  -8.2690309547225223e+00  -1.0960863423459706e+01  -5.7860531306691030e+00  -4.4866619869012272e+00  6.2075371002934880e+01  -9.4082623281510132e+02  -8.2401776345848168e+02  -7.1468967685010080e+02  -7.2879947978117571e+02  -7.6585546157539034e+02  -8.3109389560003865e+02  -4.6033534195358305e+02  -1.9391652454224686e+02  2.2351506824544464e+02  4.7277260